============================== echo of input deck ==============================
title "uracil-6-31-Gs-act"
echo
start uracil-6-31-Gs-act

memory stack 1400 mb heap 100 mb global 1600 mb noverify

geometry units angstrom noprint
N            .034130    -.986909     .000000
N          -1.173397     .981920     .000000
C          -1.218805    -.408164     .000000
C           -.007302    1.702153     .000000
C           1.196200    1.107045     .000000
C           1.289085    -.345905     .000000
O           2.310232    -.996874     .000000
O          -2.257041   -1.026495     .000000
H            .049329   -1.997961     .000000
H          -2.070598    1.437050     .000000
H           -.125651    2.776484     .000000
H           2.111671    1.674079     .000000
N            .034130    -.986909     100.000000
N          -1.173397     .981920     100.000000
C          -1.218805    -.408164     100.000000
C           -.007302    1.702153     100.000000
C           1.196200    1.107045     100.000000
C           1.289085    -.345905     100.000000
O           2.310232    -.996874     100.000000
O          -2.257041   -1.026495     100.000000
H            .049329   -1.997961     100.000000
H          -2.070598    1.437050     100.000000
H           -.125651    2.776484     100.000000
H           2.111671    1.674079     100.000000
end

basis cartesian noprint
* library 6-31G
end

scf
direct
thresh 1.0e-5
tol2e 1.0e-10
singlet
rhf
print low
end

tce
ccsd(t)
thresh 1d1
freeze atomic
tilesize 24
2eorb
2emet 15
end
set tce:nts  t

task tce
================================================================================

         Total SCF energy =   -824.557243947262
 CCSD total energy / hartree       =      -826.141604631285077
 CCSD(T) total energy / hartree       =      -826.250793806208435
 Total times  cpu:      209.8s     wall:      222.5s
